<?xml version="1.0"?>
<VTKFile type="UnstructuredGrid"  version="0.1"  >
<UnstructuredGrid>
<Piece  NumberOfPoints="891" NumberOfCells="1600">
<Points>
<DataArray  type="Float64"  NumberOfComponents="3"  format="ascii">0 0 0  5 0 0  10 0 0  15 0 0  20 0 0  25 0 0  30 0 0  35 0 0  40 0 0  45 0 0  50 0 0  55 0 0  60 0 0  65 0 0  70 0 0  75 0 0  80 0 0  85 0 0  90 0 0  95 0 0  100 0 0  105 0 0  110 0 0  115 0 0  120 0 0  125 0 0  130 0 0  135 0 0  140 0 0  145 0 0  150 0 0  155 0 0  160 0 0  165 0 0  170 0 0  175 0 0  180 0 0  185 0 0  190 0 0  195 0 0  200 0 0  205 0 0  210 0 0  215 0 0  220 0 0  225 0 0  230 0 0  235 0 0  240 0 0  245 0 0  250 0 0  255 0 0  260 0 0  265 0 0  270 0 0  275 0 0  280 0 0  285 0 0  290 0 0  295 0 0  300 0 0  305 0 0  310 0 0  315 0 0  320 0 0  325 0 0  330 0 0  335 0 0  340 0 0  345 0 0  350 0 0  355 0 0  360 0 0  365 0 0  370 0 0  375 0 0  380 0 0  385 0 0  390 0 0  395 0 0  400 0 0  0 5 0  5 5 0  10 5 0  15 5 0  20 5 0  25 5 0  30 5 0  35 5 0  40 5 0  45 5 0  50 5 0  55 5 0  60 5 0  65 5 0  70 5 0  75 5 0  80 5 0  85 5 0  90 5 0  95 5 0  100 5 0  105 5 0  110 5 0  115 5 0  120 5 0  125 5 0  130 5 0  135 5 0  140 5 0  145 5 0  150 5 0  155 5 0  160 5 0  165 5 0  170 5 0  175 5 0  180 5 0  185 5 0  190 5 0  195 5 0  200 5 0  205 5 0  210 5 0  215 5 0  220 5 0  225 5 0  230 5 0  235 5 0  240 5 0  245 5 0  250 5 0  255 5 0  260 5 0  265 5 0  270 5 0  275 5 0  280 5 0  285 5 0  290 5 0  295 5 0  300 5 0  305 5 0  310 5 0  315 5 0  320 5 0  325 5 0  330 5 0  335 5 0  340 5 0  345 5 0  350 5 0  355 5 0  360 5 0  365 5 0  370 5 0  375 5 0  380 5 0  385 5 0  390 5 0  395 5 0  400 5 0  0 10 0  5 10 0  10 10 0  15 10 0  20 10 0  25 10 0  30 10 0  35 10 0  40 10 0  45 10 0  50 10 0  55 10 0  60 10 0  65 10 0  70 10 0  75 10 0  80 10 0  85 10 0  90 10 0  95 10 0  100 10 0  105 10 0  110 10 0  115 10 0  120 10 0  125 10 0  130 10 0  135 10 0  140 10 0  145 10 0  150 10 0  155 10 0  160 10 0  165 10 0  170 10 0  175 10 0  180 10 0  185 10 0  190 10 0  195 10 0  200 10 0  205 10 0  210 10 0  215 10 0  220 10 0  225 10 0  230 10 0  235 10 0  240 10 0  245 10 0  250 10 0  255 10 0  260 10 0  265 10 0  270 10 0  275 10 0  280 10 0  285 10 0  290 10 0  295 10 0  300 10 0  305 10 0  310 10 0  315 10 0  320 10 0  325 10 0  330 10 0  335 10 0  340 10 0  345 10 0  350 10 0  355 10 0  360 10 0  365 10 0  370 10 0  375 10 0  380 10 0  385 10 0  390 10 0  395 10 0  400 10 0  0 15 0  5 15 0  10 15 0  15 15 0  20 15 0  25 15 0  30 15 0  35 15 0  40 15 0  45 15 0  50 15 0  55 15 0  60 15 0  65 15 0  70 15 0  75 15 0  80 15 0  85 15 0  90 15 0  95 15 0  100 15 0  105 15 0  110 15 0  115 15 0  120 15 0  125 15 0  130 15 0  135 15 0  140 15 0  145 15 0  150 15 0  155 15 0  160 15 0  165 15 0  170 15 0  175 15 0  180 15 0  185 15 0  190 15 0  195 15 0  200 15 0  205 15 0  210 15 0  215 15 0  220 15 0  225 15 0  230 15 0  235 15 0  240 15 0  245 15 0  250 15 0  255 15 0  260 15 0  265 15 0  270 15 0  275 15 0  280 15 0  285 15 0  290 15 0  295 15 0  300 15 0  305 15 0  310 15 0  315 15 0  320 15 0  325 15 0  330 15 0  335 15 0  340 15 0  345 15 0  350 15 0  355 15 0  360 15 0  365 15 0  370 15 0  375 15 0  380 15 0  385 15 0  390 15 0  395 15 0  400 15 0  0 20 0  5 20 0  10 20 0  15 20 0  20 20 0  25 20 0  30 20 0  35 20 0  40 20 0  45 20 0  50 20 0  55 20 0  60 20 0  65 20 0  70 20 0  75 20 0  80 20 0  85 20 0  90 20 0  95 20 0  100 20 0  105 20 0  110 20 0  115 20 0  120 20 0  125 20 0  130 20 0  135 20 0  140 20 0  145 20 0  150 20 0  155 20 0  160 20 0  165 20 0  170 20 0  175 20 0  180 20 0  185 20 0  190 20 0  195 20 0  200 20 0  205 20 0  210 20 0  215 20 0  220 20 0  225 20 0  230 20 0  235 20 0  240 20 0  245 20 0  250 20 0  255 20 0  260 20 0  265 20 0  270 20 0  275 20 0  280 20 0  285 20 0  290 20 0  295 20 0  300 20 0  305 20 0  310 20 0  315 20 0  320 20 0  325 20 0  330 20 0  335 20 0  340 20 0  345 20 0  350 20 0  355 20 0  360 20 0  365 20 0  370 20 0  375 20 0  380 20 0  385 20 0  390 20 0  395 20 0  400 20 0  0 25 0  5 25 0  10 25 0  15 25 0  20 25 0  25 25 0  30 25 0  35 25 0  40 25 0  45 25 0  50 25 0  55 25 0  60 25 0  65 25 0  70 25 0  75 25 0  80 25 0  85 25 0  90 25 0  95 25 0  100 25 0  105 25 0  110 25 0  115 25 0  120 25 0  125 25 0  130 25 0  135 25 0  140 25 0  145 25 0  150 25 0  155 25 0  160 25 0  165 25 0  170 25 0  175 25 0  180 25 0  185 25 0  190 25 0  195 25 0  200 25 0  205 25 0  210 25 0  215 25 0  220 25 0  225 25 0  230 25 0  235 25 0  240 25 0  245 25 0  250 25 0  255 25 0  260 25 0  265 25 0  270 25 0  275 25 0  280 25 0  285 25 0  290 25 0  295 25 0  300 25 0  305 25 0  310 25 0  315 25 0  320 25 0  325 25 0  330 25 0  335 25 0  340 25 0  345 25 0  350 25 0  355 25 0  360 25 0  365 25 0  370 25 0  375 25 0  380 25 0  385 25 0  390 25 0  395 25 0  400 25 0  0 30 0  5 30 0  10 30 0  15 30 0  20 30 0  25 30 0  30 30 0  35 30 0  40 30 0  45 30 0  50 30 0  55 30 0  60 30 0  65 30 0  70 30 0  75 30 0  80 30 0  85 30 0  90 30 0  95 30 0  100 30 0  105 30 0  110 30 0  115 30 0  120 30 0  125 30 0  130 30 0  135 30 0  140 30 0  145 30 0  150 30 0  155 30 0  160 30 0  165 30 0  170 30 0  175 30 0  180 30 0  185 30 0  190 30 0  195 30 0  200 30 0  205 30 0  210 30 0  215 30 0  220 30 0  225 30 0  230 30 0  235 30 0  240 30 0  245 30 0  250 30 0  255 30 0  260 30 0  265 30 0  270 30 0  275 30 0  280 30 0  285 30 0  290 30 0  295 30 0  300 30 0  305 30 0  310 30 0  315 30 0  320 30 0  325 30 0  330 30 0  335 30 0  340 30 0  345 30 0  350 30 0  355 30 0  360 30 0  365 30 0  370 30 0  375 30 0  380 30 0  385 30 0  390 30 0  395 30 0  400 30 0  0 35 0  5 35 0  10 35 0  15 35 0  20 35 0  25 35 0  30 35 0  35 35 0  40 35 0  45 35 0  50 35 0  55 35 0  60 35 0  65 35 0  70 35 0  75 35 0  80 35 0  85 35 0  90 35 0  95 35 0  100 35 0  105 35 0  110 35 0  115 35 0  120 35 0  125 35 0  130 35 0  135 35 0  140 35 0  145 35 0  150 35 0  155 35 0  160 35 0  165 35 0  170 35 0  175 35 0  180 35 0  185 35 0  190 35 0  195 35 0  200 35 0  205 35 0  210 35 0  215 35 0  220 35 0  225 35 0  230 35 0  235 35 0  240 35 0  245 35 0  250 35 0  255 35 0  260 35 0  265 35 0  270 35 0  275 35 0  280 35 0  285 35 0  290 35 0  295 35 0  300 35 0  305 35 0  310 35 0  315 35 0  320 35 0  325 35 0  330 35 0  335 35 0  340 35 0  345 35 0  350 35 0  355 35 0  360 35 0  365 35 0  370 35 0  375 35 0  380 35 0  385 35 0  390 35 0  395 35 0  400 35 0  0 40 0  5 40 0  10 40 0  15 40 0  20 40 0  25 40 0  30 40 0  35 40 0  40 40 0  45 40 0  50 40 0  55 40 0  60 40 0  65 40 0  70 40 0  75 40 0  80 40 0  85 40 0  90 40 0  95 40 0  100 40 0  105 40 0  110 40 0  115 40 0  120 40 0  125 40 0  130 40 0  135 40 0  140 40 0  145 40 0  150 40 0  155 40 0  160 40 0  165 40 0  170 40 0  175 40 0  180 40 0  185 40 0  190 40 0  195 40 0  200 40 0  205 40 0  210 40 0  215 40 0  220 40 0  225 40 0  230 40 0  235 40 0  240 40 0  245 40 0  250 40 0  255 40 0  260 40 0  265 40 0  270 40 0  275 40 0  280 40 0  285 40 0  290 40 0  295 40 0  300 40 0  305 40 0  310 40 0  315 40 0  320 40 0  325 40 0  330 40 0  335 40 0  340 40 0  345 40 0  350 40 0  355 40 0  360 40 0  365 40 0  370 40 0  375 40 0  380 40 0  385 40 0  390 40 0  395 40 0  400 40 0  0 45 0  5 45 0  10 45 0  15 45 0  20 45 0  25 45 0  30 45 0  35 45 0  40 45 0  45 45 0  50 45 0  55 45 0  60 45 0  65 45 0  70 45 0  75 45 0  80 45 0  85 45 0  90 45 0  95 45 0  100 45 0  105 45 0  110 45 0  115 45 0  120 45 0  125 45 0  130 45 0  135 45 0  140 45 0  145 45 0  150 45 0  155 45 0  160 45 0  165 45 0  170 45 0  175 45 0  180 45 0  185 45 0  190 45 0  195 45 0  200 45 0  205 45 0  210 45 0  215 45 0  220 45 0  225 45 0  230 45 0  235 45 0  240 45 0  245 45 0  250 45 0  255 45 0  260 45 0  265 45 0  270 45 0  275 45 0  280 45 0  285 45 0  290 45 0  295 45 0  300 45 0  305 45 0  310 45 0  315 45 0  320 45 0  325 45 0  330 45 0  335 45 0  340 45 0  345 45 0  350 45 0  355 45 0  360 45 0  365 45 0  370 45 0  375 45 0  380 45 0  385 45 0  390 45 0  395 45 0  400 45 0  0 50 0  5 50 0  10 50 0  15 50 0  20 50 0  25 50 0  30 50 0  35 50 0  40 50 0  45 50 0  50 50 0  55 50 0  60 50 0  65 50 0  70 50 0  75 50 0  80 50 0  85 50 0  90 50 0  95 50 0  100 50 0  105 50 0  110 50 0  115 50 0  120 50 0  125 50 0  130 50 0  135 50 0  140 50 0  145 50 0  150 50 0  155 50 0  160 50 0  165 50 0  170 50 0  175 50 0  180 50 0  185 50 0  190 50 0  195 50 0  200 50 0  205 50 0  210 50 0  215 50 0  220 50 0  225 50 0  230 50 0  235 50 0  240 50 0  245 50 0  250 50 0  255 50 0  260 50 0  265 50 0  270 50 0  275 50 0  280 50 0  285 50 0  290 50 0  295 50 0  300 50 0  305 50 0  310 50 0  315 50 0  320 50 0  325 50 0  330 50 0  335 50 0  340 50 0  345 50 0  350 50 0  355 50 0  360 50 0  365 50 0  370 50 0  375 50 0  380 50 0  385 50 0  390 50 0  395 50 0  400 50 0  </DataArray>
</Points>
<Cells>
[...]
<PointData  Vectors="f_33"> 
<DataArray  type="Float64"  Name="f_33"  NumberOfComponents="3" format="ascii">5.7990193197825571e-18 -7.9999999999999932e-02 0.0000000000000000e+00  -4.8171649420296098e-18 -7.9999999999999905e-02 0.0000000000000000e+00  1.0542176313745736e-17 -7.9999999999999877e-02 0.0000000000000000e+00  -2.1217146403887631e-17 -7.9999999999999974e-02 0.0000000000000000e+00  2.0585792817974958e-17 -7.9999999999999974e-02 0.0000000000000000e+00  -4.4909836816812144e-18 -7.9999999999999932e-02 0.0000000000000000e+00  -4.3109718063772257e-18 -7.9999999999999932e-02 0.0000000000000000e+00  -9.8739993900220195e-18 -7.9999999999999974e-02 0.0000000000000000e+00  2.9180674008784177e-17 -7.9999999999999932e-02 0.0000000000000000e+00  -3.0212755323000009e-17 -7.9999999999999932e-02 0.0000000000000000e+00  1.0794473691068133e-17 -7.9999999999999974e-02 0.0000000000000000e+00  1.2017921387186456e-17 -7.9999999999999932e-02 0.0000000000000000e+00  -2.2466081582589678e-17 -7.9999999999999891e-02 0.0000000000000000e+00  3.3458858710465812e-17 -7.9999999999999780e-02 0.0000000000000000e+00  -3.2026013847066859e-17 -7.9999999999999807e-02 0.0000000000000000e+00  1.9459875747853910e-17 -7.9999999999999877e-02 0.0000000000000000e+00  -1.1160180227187003e-17 -7.9999999999999877e-02 0.0000000000000000e+00  -1.1024523543307442e-18 -7.9999999999999946e-02 0.0000000000000000e+00  1.1531440469987677e-18 -7.9999999999999932e-02 0.0000000000000000e+00  1.6189252859485397e-18 -7.9999999999999988e-02 0.0000000000000000e+00  -4.9057818699162166e-18 -7.9999999999999932e-02 0.0000000000000000e+00  8.2947691830185246e-18 -7.9999999999999960e-02 0.0000000000000000e+00  -4.2570132522343471e-19 -7.9999999999999877e-02 0.0000000000000000e+00  -4.2586541815759707e-18 -7.9999999999999974e-02 0.0000000000000000e+00  -1.6971637179777815e-17 -7.9999999999999932e-02 0.0000000000000000e+00  4.9191869381038016e-17 -7.9999999999999932e-02 0.0000000000000000e+00  -4.3823075908456986e-17 -7.9999999999999849e-02 0.0000000000000000e+00  -1.2761273306964884e-18 -7.9999999999999974e-02 0.0000000000000000e+00  4.0304090973610323e-17 -7.9999999999999905e-02 0.0000000000000000e+00  -4.1749810009763501e-17 -7.9999999999999877e-02 0.0000000000000000e+00  1.5857002481190164e-17 -7.9999999999999946e-02 0.0000000000000000e+00  2.1372282129849606e-17 -7.9999999999999849e-02 0.0000000000000000e+00  -4.3496073256495097e-17 -7.9999999999999821e-02 0.0000000000000000e+00  4.6971161541755561e-17 -7.9999999999999807e-02 0.0000000000000000e+00  -3.5036601400256087e-17 -7.9999999999999738e-02 0.0000000000000000e+00  2.2170948043352061e-17 -7.9999999999999821e-02 0.0000000000000000e+00  -9.5608791110226899e-18 -7.9999999999999835e-02 0.0000000000000000e+00  -1.0734685297016626e-17 -7.9999999999999932e-02 0.0000000000000000e+00  1.3851619745243956e-17 -7.9999999999999960e-02 0.0000000000000000e+00  -1.6326821088004351e-17 -7.9999999999999932e-02 0.0000000000000000e+00  3.5921687601242579e-17 -7.9999999999999905e-02 0.0000000000000000e+00  -5.0525062641219161e-17 -7.9999999999999877e-02 0.0000000000000000e+00  3.9144811194592502e-17 -7.9999999999999960e-02 0.0000000000000000e+00  -7.1528190846657271e-18 -7.9999999999999891e-02 0.0000000000000000e+00  -1.6277763617828548e-17 -7.9999999999999905e-02 0.0000000000000000e+00  1.4227961094562295e-17 -7.9999999999999960e-02 0.0000000000000000e+00  -6.0453296948507937e-18 -7.9999999999999960e-02 0.0000000000000000e+00  -7.7781896571529719e-18 -7.9999999999999974e-02 0.0000000000000000e+00  2.3367463306636908e-17 -7.9999999999999932e-02 0.0000000000000000e+00  -2.9343425758680855e-17 -7.9999999999999905e-02 0.0000000000000000e+00  2.4198908933918461e-17 -7.9999999999999960e-02 0.0000000000000000e+00  -2.0318009174498913e-17 -7.9999999999999932e-02 0.0000000000000000e+00  2.1532694962406421e-17 -7.9999999999999877e-02 0.0000000000000000e+00  -1.5753871833489331e-17 -7.9999999999999849e-02 0.0000000000000000e+00  2.2611114488541800e-17 -7.9999999999999877e-02 0.0000000000000000e+00  -4.3147403014183872e-17 -7.9999999999999877e-02 0.0000000000000000e+00  4.8267548230075783e-17 -7.9999999999999932e-02 0.0000000000000000e+00  -3.6935251790195308e-17 -7.9999999999999835e-02 0.0000000000000000e+00  1.4488543350221532e-17 -7.9999999999999974e-02 0.0000000000000000e+00  -7.1730412406633634e-18 -7.9999999999999960e-02 0.0000000000000000e+00  -2.7531277326392129e-18 -7.9999999999999905e-02 0.0000000000000000e+00  3.2896215654468355e-17 -7.9999999999999932e-02 0.0000000000000000e+00  -4.5985433801789888e-17 -7.9999999999999766e-02 0.0000000000000000e+00  4.0741517340483778e-17 -7.9999999999999849e-02 0.0000000000000000e+00  -3.1545201232165522e-17 -7.9999999999999807e-02 0.0000000000000000e+00  2.4340879958192551e-17 -7.9999999999999821e-02 0.0000000000000000e+00  -1.7880440436917371e-17 -7.9999999999999835e-02 0.0000000000000000e+00  6.1081351735010149e-18 -7.9999999999999905e-02 0.0000000000000000e+00  1.3412248830951449e-17 -7.9999999999999905e-02 0.0000000000000000e+00  -3.4994368884783633e-17 -7.9999999999999877e-02 0.0000000000000000e+00  3.1618912295889742e-17 -7.9999999999999960e-02 0.0000000000000000e+00  1.1759110210725521e-18 -7.9999999999999863e-02 0.0000000000000000e+00  -3.2845829305129609e-17 -7.9999999999999932e-02 0.0000000000000000e+00  3.2542890092787605e-17 -7.9999999999999905e-02 0.0000000000000000e+00  -3.8927919227954842e-18 -7.9999999999999849e-02 0.0000000000000000e+00  -1.3179204889639485e-17 -7.9999999999999849e-02 0.0000000000000000e+00  1.3996537539242456e-17 -7.9999999999999974e-02 0.0000000000000000e+00  -2.8149405770783136e-17 -8.0000000000000002e-02 0.0000000000000000e+00  2.6415347890130066e-17 -8.0000000000000002e-02 0.0000000000000000e+00  -1.8077922398728383e-18 -7.9999999999999877e-02 0.0000000000000000e+00  -1.8859780156891143e-17 -7.9999999999999863e-02 0.0000000000000000e+00  -1.0155219657344611e-17 -7.9999999999999891e-02 0.0000000000000000e+00  -4.1118463398780053e-18 -7.9999999999999960e-02 0.0000000000000000e+00  1.0392743349202691e-17 -7.9999999999999974e-02 0.0000000000000000e+00  -2.9002116617481279e-17 -7.9999999999999918e-02 0.0000000000000000e+00  -6.1771555836029271e-18 -7.9999999999999974e-02 0.0000000000000000e+00  4.0540569019349232e-17 -7.9999999999999988e-02 0.0000000000000000e+00  -3.5205028480104471e-17 -7.9999999999999946e-02 0.0000000000000000e+00  -2.7946291411799001e-17 -7.9999999999999974e-02 0.0000000000000000e+00  4.5133438480661584e-17 -8.0000000000000002e-02 0.0000000000000000e+00  -2.9365356303616350e-17 -8.0000000000000016e-02 0.0000000000000000e+00  1.6749321575803436e-17 -7.9999999999999974e-02 0.0000000000000000e+00  4.3231401165785699e-17 -7.9999999999999960e-02 0.0000000000000000e+00  3.7572941080931393e-17 -7.9999999999999863e-02 0.0000000000000000e+00  7.0869136180115091e-18 -7.9999999999999891e-02 0.0000000000000000e+00  3.0492848123061091e-18 -7.9999999999999932e-02 0.0000000000000000e+00  -1.6697337347152136e-17 -7.9999999999999877e-02 0.0000000000000000e+00  -2.0089192859282673e-17 -7.9999999999999918e-02 0.0000000000000000e+00  -6.6631280618433585e-17 -7.9999999999999918e-02 0.0000000000000000e+00  -8.3245710753668402e-18 -8.0000000000000043e-02 0.0000000000000000e+00  4.6069024685616381e-18 -7.9999999999999988e-02 0.0000000000000000e+00  -7.5873594149485339e-18 -8.0000000000000002e-02 0.0000000000000000e+00  1.7347857790213652e-17 -8.0000000000000043e-02 0.0000000000000000e+00  4.3700303105187390e-17 -8.0000000000000043e-02 0.0000000000000000e+00  -4.4441256630238361e-17 -7.9999999999999946e-02 0.0000000000000000e+00  -1.7350838419419873e-17 -8.0000000000000016e-02 0.0000000000000000e+00  4.5799142359022298e-17 -8.0000000000000071e-02 0.0000000000000000e+00  3.1311635351383495e-17 -7.9999999999999960e-02 0.0000000000000000e+00  -3.4822581113698944e-17 -7.9999999999999891e-02 0.0000000000000000e+00  4.0410455573211748e-17 -7.9999999999999946e-02 0.0000000000000000e+00  -2.8787457361297031e-17 -7.9999999999999891e-02 0.0000000000000000e+00  1.4934038200671649e-17 -7.9999999999999891e-02 0.0000000000000000e+00  5.8706020758230494e-17 -7.9999999999999891e-02 0.0000000000000000e+00  -2.5736604913240093e-17 -7.9999999999999821e-02 0.0000000000000000e+00  3.8786376000036058e-17 -7.9999999999999891e-02 0.0000000000000000e+00  2.6099930396846245e-17 -7.9999999999999877e-02 0.0000000000000000e+00  -3.8827907835518562e-17 -7.9999999999999863e-02 0.0000000000000000e+00  -5.3861960388982616e-18 -7.9999999999999863e-02 0.0000000000000000e+00  -5.4916024848088151e-17 -7.9999999999999793e-02 0.0000000000000000e+00  -2.6047592040488262e-17 -7.9999999999999835e-02 0.0000000000000000e+00  -1.9765140027331218e-18 -7.9999999999999905e-02 0.0000000000000000e+00  2.6070323593502909e-17 -7.9999999999999974e-02 0.0000000000000000e+00  1.0612857929896774e-17 -7.9999999999999918e-02 0.0000000000000000e+00  -7.5932218666725113e-18 -7.9999999999999877e-02 0.0000000000000000e+00  3.0020031608353125e-17 -7.9999999999999835e-02 0.0000000000000000e+00  -1.9995098142737916e-17 -7.9999999999999821e-02 0.0000000000000000e+00  -4.5731484471240411e-17 -7.9999999999999891e-02 0.0000000000000000e+00  1.4209147843893200e-17 -7.9999999999999891e-02 0.0000000000000000e+00  7.0195552195451809e-19 -7.9999999999999849e-02 0.0000000000000000e+00  1.3971546643611342e-17 -7.9999999999999891e-02 0.0000000000000000e+00  -6.5513128855605149e-17 -7.9999999999999932e-02 0.0000000000000000e+00  4.6493493164483238e-17 -7.9999999999999988e-02 0.0000000000000000e+00  -1.0992775652761985e-17 -7.9999999999999960e-02 0.0000000000000000e+00  4.9081001228096296e-17 -7.9999999999999988e-02 0.0000000000000000e+00  1.5379156851194259e-17 -7.9999999999999932e-02 0.0000000000000000e+00  9.8105539237996205e-18 -7.9999999999999918e-02 0.0000000000000000e+00  -4.8193259965588425e-17 -7.9999999999999891e-02 0.0000000000000000e+00  3.1173835186315550e-17 -7.9999999999999932e-02 0.0000000000000000e+00  -2.4912850011837624e-17 -7.9999999999999891e-02 0.0000000000000000e+00  -6.6817428702407560e-18 -7.9999999999999905e-02 0.0000000000000000e+00  -1.4729740664994510e-17 -7.9999999999999863e-02 0.0000000000000000e+00  3.0381156578193446e-17 -7.9999999999999946e-02 0.0000000000000000e+00  7.6038941875337391e-17 -7.9999999999999863e-02 0.0000000000000000e+00  1.6175145622245616e-17 -7.9999999999999821e-02 0.0000000000000000e+00  1.6955624387612351e-18 -7.9999999999999793e-02 0.0000000000000000e+00  -1.8880700963481179e-18 -7.9999999999999793e-02 0.0000000000000000e+00  -1.9284251703380236e-17 -7.9999999999999793e-02 0.0000000000000000e+00  -2.9025567336655987e-17 -7.9999999999999849e-02 0.0000000000000000e+00  -1.5824345765325441e-17 -7.9999999999999821e-02 0.0000000000000000e+00  -2.6596395219465000e-19 -7.9999999999999863e-02 0.0000000000000000e+00  -2.5527665685018390e-17 -7.9999999999999807e-02 0.0000000000000000e+00  -3.0271106865670621e-18 -7.9999999999999849e-02 0.0000000000000000e+00  3.6101905193269035e-17 -7.9999999999999905e-02 0.0000000000000000e+00  -3.9016179751866768e-17 -7.9999999999999863e-02 0.0000000000000000e+00  9.6719646478098063e-18 -7.9999999999999835e-02 0.0000000000000000e+00  2.2090978150305599e-17 -7.9999999999999932e-02 0.0000000000000000e+00  -2.0094444983493204e-17 -7.9999999999999863e-02 0.0000000000000000e+00  -5.6442115618327543e-17 -7.9999999999999918e-02 0.0000000000000000e+00  -4.8149918516075279e-17 -7.9999999999999960e-02 0.0000000000000000e+00  2.9125466266851679e-17 -7.9999999999999988e-02 0.0000000000000000e+00  7.3140542761859609e-17 -7.9999999999999988e-02 0.0000000000000000e+00  3.9527352553655133e-17 -7.9999999999999974e-02 0.0000000000000000e+00  -3.8765374845962317e-17 -7.9999999999999974e-02 0.0000000000000000e+00  -5.9961619387513968e-17 -7.9999999999999891e-02 0.0000000000000000e+00  1.4659251028419313e-19 -8.0000000000000016e-02 0.0000000000000000e+00  -3.5114101019857171e-17 -8.0000000000000002e-02 0.0000000000000000e+00  -3.9765112614499138e-17 -8.0000000000000043e-02 0.0000000000000000e+00  6.5920947300161413e-17 -8.0000000000000029e-02 0.0000000000000000e+00  -2.8525690825057102e-17 -7.9999999999999974e-02 0.0000000000000000e+00  -1.9387756077593965e-17 -8.0000000000000016e-02 0.0000000000000000e+00  1.9237496927330755e-17 -8.0000000000000016e-02 0.0000000000000000e+00  3.3181409491390017e-18 -7.9999999999999988e-02 0.0000000000000000e+00  2.8756591283423077e-17 -7.9999999999999946e-02 0.0000000000000000e+00  1.5385547218780808e-16 -7.9999999999999849e-02 0.0000000000000000e+00  4.8079630025689491e-17 -7.9999999999999766e-02 0.0000000000000000e+00  -3.0280559820256785e-17 -7.9999999999999821e-02 0.0000000000000000e+00  -5.8304809785800095e-17 -7.9999999999999891e-02 0.0000000000000000e+00  -3.5080047069181636e-17 -7.9999999999999988e-02 0.0000000000000000e+00  -7.2144515186154066e-18 -7.9999999999999960e-02 0.0000000000000000e+00  -1.6359506700707152e-16 -8.0000000000000016e-02 0.0000000000000000e+00  -1.7665746556247591e-17 -8.0000000000000140e-02 0.0000000000000000e+00  4.0769017495639971e-17 -8.0000000000000071e-02 0.0000000000000000e+00  2.7996155697245041e-17 -8.0000000000000071e-02 0.0000000000000000e+00  -8.4406629729248235e-17 -7.9999999999999988e-02 0.0000000000000000e+00  1.1290212080152447e-16 -8.0000000000000029e-02 0.0000000000000000e+00  -1.7261585939746146e-17 -7.9999999999999988e-02 0.0000000000000000e+00  6.8927208784221433e-18 -7.9999999999999932e-02 0.0000000000000000e+00  -5.4999853546232386e-17 -7.9999999999999863e-02 0.0000000000000000e+00  1.0594868350830237e-16 -8.0000000000000016e-02 0.0000000000000000e+00  2.8454172176165252e-17 -7.9999999999999946e-02 0.0000000000000000e+00  6.5040584850574151e-17 -7.9999999999999905e-02 0.0000000000000000e+00  1.8562782165257328e-19 -7.9999999999999849e-02 0.0000000000000000e+00  7.6180391458837175e-18 -7.9999999999999849e-02 0.0000000000000000e+00  6.5285429475499801e-17 -7.9999999999999863e-02 0.0000000000000000e+00  1.1243168172960298e-17 -7.9999999999999863e-02 0.0000000000000000e+00  -1.5458871172027564e-17 -7.9999999999999835e-02 0.0000000000000000e+00  3.4253497066730610e-17 -7.9999999999999932e-02 0.0000000000000000e+00  -3.0661538936925715e-17 -7.9999999999999863e-02 0.0000000000000000e+00  4.2960928520698384e-19 -7.9999999999999877e-02 0.0000000000000000e+00  -5.9063138117439453e-17 -7.9999999999999918e-02 0.0000000000000000e+00  -1.4902800402920224e-17 -7.9999999999999974e-02 0.0000000000000000e+00  -5.8142914230971328e-17 -7.9999999999999946e-02 0.0000000000000000e+00  -3.8567834425399897e-17 -7.9999999999999988e-02 0.0000000000000000e+00  1.6477712931902454e-16 -7.9999999999999988e-02 0.0000000000000000e+00  -3.8038974275856520e-17 -7.9999999999999849e-02 0.0000000000000000e+00  5.4345667384268357e-17 -7.9999999999999918e-02 0.0000000000000000e+00  -3.9029384702375109e-17 -7.9999999999999835e-02 0.0000000000000000e+00  -8.4964862155230835e-17 -7.9999999999999863e-02 0.0000000000000000e+00  -2.6939651937146408e-17 -7.9999999999999988e-02 0.0000000000000000e+00  8.9553964885877289e-17 -7.9999999999999946e-02 0.0000000000000000e+00  -2.4856146306218418e-17 -7.9999999999999891e-02 0.0000000000000000e+00  -9.3017960718169665e-17 -7.9999999999999905e-02 0.0000000000000000e+00  -1.8032668477438577e-17 -7.9999999999999932e-02 0.0000000000000000e+00  1.5011160133071113e-17 -7.9999999999999960e-02 0.0000000000000000e+00  4.0307941601514290e-17 -8.0000000000000029e-02 0.0000000000000000e+00  5.3734157785498909e-17 -7.9999999999999918e-02 0.0000000000000000e+00  -1.0839332740949200e-17 -7.9999999999999988e-02 0.0000000000000000e+00  -2.2067130342506820e-17 -8.0000000000000002e-02 0.0000000000000000e+00  7.6717182721492079e-18 -7.9999999999999918e-02 0.0000000000000000e+00  -1.5706462165992665e-17 -8.0000000000000002e-02 0.0000000000000000e+00  4.6092446634176312e-17 -7.9999999999999974e-02 0.0000000000000000e+00  -3.2730532265938412e-17 -7.9999999999999905e-02 0.0000000000000000e+00  9.0094060438394629e-17 -7.9999999999999932e-02 0.0000000000000000e+00  4.2609565981706208e-17 -7.9999999999999835e-02 0.0000000000000000e+00  5.1733401557214770e-17 -7.9999999999999946e-02 0.0000000000000000e+00  4.1921734206320524e-17 -7.9999999999999863e-02 0.0000000000000000e+00  2.2128458943407461e-17 -7.9999999999999849e-02 0.0000000000000000e+00  -8.5674392055904756e-17 -7.9999999999999821e-02 0.0000000000000000e+00  -1.5853434680622870e-17 -7.9999999999999960e-02 0.0000000000000000e+00  -3.6696299015796770e-17 -7.9999999999999821e-02 0.0000000000000000e+00  6.2164134311707299e-19 -7.9999999999999835e-02 0.0000000000000000e+00  2.2805769815942192e-17 -7.9999999999999863e-02 0.0000000000000000e+00  -4.4604725445766223e-17 -7.9999999999999793e-02 0.0000000000000000e+00  -2.7698120201074958e-17 -7.9999999999999932e-02 0.0000000000000000e+00  2.0175300595460426e-17 -7.9999999999999960e-02 0.0000000000000000e+00  -2.2318073809863511e-20 -7.9999999999999863e-02 0.0000000000000000e+00  -4.0781328999145793e-17 -7.9999999999999891e-02 0.0000000000000000e+00  -2.1174315766984005e-17 -8.0000000000000029e-02 0.0000000000000000e+00  -8.9942751331014941e-17 -8.0000000000000016e-02 0.0000000000000000e+00  -4.2435691052255496e-17 -8.0000000000000085e-02 0.0000000000000000e+00  2.8635582097925031e-17 -7.9999999999999988e-02 0.0000000000000000e+00  5.6461925215248705e-17 -7.9999999999999974e-02 0.0000000000000000e+00  3.8710452656043365e-17 -8.0000000000000002e-02 0.0000000000000000e+00  5.9631993153838825e-17 -7.9999999999999988e-02 0.0000000000000000e+00  -4.8320787255374414e-17 -7.9999999999999891e-02 0.0000000000000000e+00  -7.7481815029842186e-17 -7.9999999999999988e-02 0.0000000000000000e+00  -6.6874854507158612e-18 -7.9999999999999988e-02 0.0000000000000000e+00  -6.3018037568320477e-17 -7.9999999999999974e-02 0.0000000000000000e+00  4.5078728389183408e-17 -7.9999999999999974e-02 0.0000000000000000e+00  2.0758842294343419e-17 -8.0000000000000071e-02 0.0000000000000000e+00  -6.8006882799586743e-17 -8.0000000000000016e-02 0.0000000000000000e+00  -4.1294777321315347e-18 -8.0000000000000029e-02 0.0000000000000000e+00  5.9671533044638714e-17 -8.0000000000000029e-02 0.0000000000000000e+00  1.1200874653651433e-16 -7.9999999999999946e-02 0.0000000000000000e+00  2.1482348163640399e-16 -7.9999999999999946e-02 0.0000000000000000e+00  3.5289910243731057e-17 -8.0000000000000016e-02 0.0000000000000000e+00  -8.9608850285199398e-17 -7.9999999999999988e-02 0.0000000000000000e+00  -1.0176048824276509e-16 -8.0000000000000043e-02 0.0000000000000000e+00  -8.7155562757772460e-17 -8.0000000000000085e-02 0.0000000000000000e+00  -5.0632705468561631e-17 -8.0000000000000099e-02 0.0000000000000000e+00  -2.0907710808025905e-16 -8.0000000000000140e-02 0.0000000000000000e+00  -7.8149873824175283e-18 -8.0000000000000016e-02 0.0000000000000000e+00  4.5137842015097431e-17 -8.0000000000000016e-02 0.0000000000000000e+00  4.7804450110669125e-17 -8.0000000000000043e-02 0.0000000000000000e+00  -2.6298614203706866e-18 -8.0000000000000029e-02 0.0000000000000000e+00  1.9792842411152568e-17 -7.9999999999999891e-02 0.0000000000000000e+00  1.3722395016028115e-16 -8.0000000000000071e-02 0.0000000000000000e+00  1.9376246140199355e-17 -7.9999999999999932e-02 0.0000000000000000e+00  6.7075816473951313e-18 -7.9999999999999960e-02 0.0000000000000000e+00  -1.2287198005730215e-17 -7.9999999999999932e-02 0.0000000000000000e+00  4.2123851498803455e-17 -7.9999999999999988e-02 0.0000000000000000e+00  7.4864232943958382e-17 -8.0000000000000071e-02 0.0000000000000000e+00  6.6878326054096274e-17 -7.9999999999999988e-02 0.0000000000000000e+00  1.0307758047140179e-16 -7.9999999999999974e-02 0.0000000000000000e+00  2.1641151441800307e-17 -7.9999999999999752e-02 0.0000000000000000e+00  -6.7316899845608328e-17 -7.9999999999999807e-02 0.0000000000000000e+00  5.8797586293964617e-18 -7.9999999999999905e-02 0.0000000000000000e+00  -6.0490809893730538e-17 -7.9999999999999946e-02 0.0000000000000000e+00  1.93907302