<?xml version="1.0"?>
<VTKFile type="UnstructuredGrid"  version="0.1"  >
<UnstructuredGrid>
<Piece  NumberOfPoints="18081" NumberOfCells="96000">
<Points>
<DataArray  type="Float64"  NumberOfComponents="3"  format="ascii">0 0 0  10 0 0  20 0 0  30 0 0  40 0 0  50 0 0  60 0 0  70 0 0  80 0 0  90 0 0  100 0 0  110 0 0  120 0 0  130 0 0  140 0 0  150 0 0  160 0 0  170 0 0  180 0 0  190 0 0  200 0 0  210 0 0  220 0 0  230 0 0  240 0 0  250 0 0  260 0 0  270 0 0  280 0 0  290 0 0  300 0 0  310 0 0  320 0 0  330 0 0  340 0 0  350 0 0  360 0 0  370 0 0  380 0 0  390 0 0  400 0 0  0 10 0  10 10 0  20 10 0  30 10 0  40 10 0  50 10 0  60 10 0  70 10 0  80 10 0  90 10 0  100 10 0  110 10 0  120 10 0  130 10 0  140 10 0  150 10 0  160 10 0  170 10 0  180 10 0  190 10 0  200 10 0  210 10 0  220 10 0  230 10 0  240 10 0  250 10 0  260 10 0  270 10 0  280 10 0  290 10 0  300 10 0  310 10 0  320 10 0  330 10 0  340 10 0  350 10 0  360 10 0  370 10 0  380 10 0  390 10 0  400 10 0  0 20 0  10 20 0  20 20 0  30 20 0  40 20 0  50 20 0  60 20 0  70 20 0  80 20 0  90 20 0  100 20 0  110 20 0  120 20 0  130 20 0  140 20 0  150 20 0  160 20 0  170 20 0  180 20 0  190 20 0  200 20 0  210 20 0  220 20 0  230 20 0  240 20 0  250 20 0  260 20 0  270 20 0  280 20 0  290 20 0  300 20 0  310 20 0  320 20 0  330 20 0  340 20 0  350 20 0  360 20 0  370 20 0  380 20 0  390 20 0  400 20 0  0 30 0  10 30 0  20 30 0  30 30 0  40 30 0  50 30 0  60 30 0  70 30 0  80 30 0  90 30 0  100 30 0  110 30 0  120 30 0  130 30 0  140 30 0  150 30 0  160 30 0  170 30 0  180 30 0  190 30 0  200 30 0  210 30 0  220 30 0  230 30 0  240 30 0  250 30 0  260 30 0  270 30 0  280 30 0  290 30 0  300 30 0  310 30 0  320 30 0  330 30 0  340 30 0  350 30 0  360 30 0  370 30 0  380 30 0  390 30 0  400 30 0  0 40 0  10 40 0  20 40 0  30 40 0  40 40 0  50 40 0  60 40 0  70 40 0  80 40 0  90 40 0  100 40 0  110 40 0  120 40 0  130 40 0  140 40 0  150 40 0  160 40 0  170 40 0  180 40 0  190 40 0  200 40 0  210 40 0  220 40 0  230 40 0  240 40 0  250 40 0  260 40 0  270 40 0  280 40 0  290 40 0  300 40 0  310 40 0  320 40 0  330 40 0  340 40 0  350 40 0  360 40 0  370 40 0  380 40 0  390 40 0  400 40 0  0 50 0  10 50 0  20 50 0  30 50 0  40 50 0  50 50 0  60 50 0  70 50 0  80 50 0  90 50 0  100 50 0  110 50 0  120 50 0  130 50 0  140 50 0  150 50 0  160 50 0  170 50 0  180 50 0  190 50 0  200 50 0  210 50 0  220 50 0  230 50 0  240 50 0  250 50 0  260 50 0  270 50 0  280 50 0  290 50 0  300 50 0  310 50 0  320 50 0  330 50 0  340 50 0  350 50 0  360 50 0  370 50 0  380 50 0  390 50 0  400 50 0  0 60 0  10 60 0  20 60 0  30 60 0  40 60 0  50 60 0  60 60 0  70 60 0  80 60 0  90 60 0  100 60 0  110 60 0  120 60 0  130 60 0  140 60 0  150 60 0  160 60 0  170 60 0  180 60 0  190 60 0  200 60 0  210 60 0  220 60 0  230 60 0  240 60 0  250 60 0  260 60 0  270 60 0  280 60 0  290 60 0  300 60 0  310 60 0  320 60 0  330 60 0  340 60 0  350 60 0  360 60 0  370 60 0  380 60 0  390 60 0  400 60 0  0 70 0  10 70 0  20 70 0  30 70 0  40 70 0  50 70 0  60 70 0  70 70 0  80 70 0  90 70 0  100 70 0  110 70 0  120 70 0  130 70 0  140 70 0  150 70 0  160 70 0  170 70 0  180 70 0  190 70 0  200 70 0  210 70 0  220 70 0  230 70 0  240 70 0  250 70 0  260 70 0  270 70 0  280 70 0  290 70 0  300 70 0  310 70 0  320 70 0  330 70 0  340 70 0  350 70 0  360 70 0  370 70 0  380 70 0  390 70 0  400 70 0  0 80 0  10 80 0  20 80 0  30 80 0  40 80 0  50 80 0  60 80 0  70 80 0  80 80 0  90 80 0  100 80 0  110 80 0  120 80 0  130 80 0  140 80 0  150 80 0  160 80 0  170 80 0  180 80 0  190 80 0  200 80 0  210 80 0  220 80 0  230 80 0  240 80 0  250 80 0  260 80 0  270 80 0  280 80 0  290 80 0  300 80 0  310 80 0  320 80 0  330 80 0  340 80 0  350 80 0  360 80 0  370 80 0  380 80 0  390 80 0  400 80 0  0 90 0  10 90 0  20 90 0  30 90 0  40 90 0  50 90 0  60 90 0  70 90 0  80 90 0  90 90 0  100 90 0  110 90 0  120 90 0  130 90 0  140 90 0  150 90 0  160 90 0  170 90 0  180 90 0  190 90 0  200 90 0  210 90 0  220 90 0  230 90 0  240 90 0  250 90 0  260 90 0  270 90 0  280 90 0  290 90 0  300 90 0  310 90 0  320 90 0  330 90 0  340 90 0  350 90 0  360 90 0  370 90 0  380 90 0  390 90 0  400 90 0  0 100 0  10 100 0  20 100 0  30 100 0  40 100 0  50 100 0  60 100 0  70 100 0  80 100 0  90 100 0  100 100 0  110 100 0  120 100 0  130 100 0  140 100 0  150 100 0  160 100 0  170 100 0  180 100 0  190 100 0  200 100 0  210 100 0  220 100 0  230 100 0  240 100 0  250 100 0  260 100 0  270 100 0  280 100 0  290 100 0  300 100 0  310 100 0  320 100 0  330 100 0  340 100 0  350 100 0  360 100 0  370 100 0  380 100 0  390 100 0  400 100 0  0 110 0  10 110 0  20 110 0  30 110 0  40 110 0  50 110 0  60 110 0  70 110 0  80 110 0  90 110 0  100 110 0  110 110 0  120 110 0  130 110 0  140 110 0  150 110 0  160 110 0  170 110 0  180 110 0  190 110 0  200 110 0  210 110 0  220 110 0  230 110 0  240 110 0  250 110 0  260 110 0  270 110 0  280 110 0  290 110 0  300 110 0  310 110 0  320 110 0  330 110 0  340 110 0  350 110 0  360 110 0  370 110 0  380 110 0  390 110 0  400 110 0  0 120 0  10 120 0  20 120 0  30 120 0  40 120 0  50 120 0  60 120 0  70 120 0  80 120 0  90 120 0  100 120 0  110 120 0  120 120 0  130 120 0  140 120 0  150 120 0  160 120 0  170 120 0  180 120 0  190 120 0  200 120 0  210 120 0  220 120 0  230 120 0  240 120 0  250 120 0  260 120 0  270 120 0  280 120 0  290 120 0  300 120 0  310 120 0  320 120 0  330 120 0  340 120 0  350 120 0  360 120 0  370 120 0  380 120 0  390 120 0  400 120 0  0 130 0  10 130 0  20 130 0  30 130 0  40 130 0  50 130 0  60 130 0  70 130 0  80 130 0  90 130 0  100 130 0  110 130 0  120 130 0  130 130 0  140 130 0  150 130 0  160 130 0  170 130 0  180 130 0  190 130 0  200 130 0  210 130 0  220 130 0  230 130 0  240 130 0  250 130 0  260 130 0  270 130 0  280 130 0  290 130 0  300 130 0  310 130 0  320 130 0  330 130 0  340 130 0  350 130 0  360 130 0  370 130 0  380 130 0  390 130 0  400 130 0  0 140 0  10 140 0  20 140 0  30 140 0  40 140 0  50 140 0  60 140 0  70 140 0  80 140 0  90 140 0  100 140 0  110 140 0  120 140 0  130 140 0  140 140 0  150 140 0  160 140 0  170 140 0  180 140 0  190 140 0  200 140 0  210 140 0  220 140 0  230 140 0  240 140 0  250 140 0  260 140 0  270 140 0  280 140 0  290 140 0  300 140 0  310 140 0  320 140 0  330 140 0  340 140 0  350 140 0  360 140 0  370 140 0  380 140 0  390 140 0  400 140 0  0 150 0  10 150 0  20 150 0  30 150 0  40 150 0  50 150 0  60 150 0  70 150 0  80 150 0  90 150 0  100 150 0  110 150 0  120 150 0  130 150 0  140 150 0  150 150 0  160 150 0  170 150 0  180 150 0  190 150 0  200 150 0  210 150 0  220 150 0  230 150 0  240 150 0  250 150 0  260 150 0  270 150 0  280 150 0  290 150 0  300 150 0  310 150 0  320 150 0  330 150 0  340 150 0  350 150 0  360 150 0  370 150 0  380 150 0  390 150 0  400 150 0  0 160 0  10 160 0  20 160 0  30 160 0  40 160 0  50 160 0  60 160 0  70 160 0  80 160 0  90 160 0  100 160 0  110 160 0  120 160 0  130 160 0  140 160 0  150 160 0  160 160 0  170 160 0  180 160 0  190 160 0  200 160 0  210 160 0  220 160 0  230 160 0  240 160 0  250 160 0  260 160 0  270 160 0  280 160 0  290 160 0  300 160 0  310 160 0  320 160 0  330 160 0  340 160 0  350 160 0  360 160 0  370 160 0  380 160 0  390 160 0  400 160 0  0 170 0  10 170 0  20 170 0  30 170 0  40 170 0  50 170 0  60 170 0  70 170 0  80 170 0  90 170 0  100 170 0  110 170 0  120 170 0  130 170 0  140 170 0  150 170 0  160 170 0  170 170 0  180 170 0  190 170 0  200 170 0  210 170 0  220 170 0  230 170 0  240 170 0  250 170 0  260 170 0  270 170 0  280 170 0  290 170 0  300 170 0  310 170 0  320 170 0  330 170 0  340 170 0  350 170 0  360 170 0  370 170 0  380 170 0  390 170 0  400 170 0  0 180 0  10 180 0  20 180 0  30 180 0  40 180 0  50 180 0  60 180 0  70 180 0  80 180 0  90 180 0  100 180 0  110 180 0  120 180 0  130 180 0  140 180 0  150 180 0  160 180 0  170 180 0  180 180 0  190 180 0  200 180 0  210 180 0  220 180 0  230 180 0  240 180 0  250 180 0  260 180 0  270 180 0  280 180 0  290 180 0  300 180 0  310 180 0  320 180 0  330 180 0  340 180 0  350 180 0  360 180 0  370 180 0  380 180 0  390 180 0  400 180 0  0 190 0  10 190 0  20 190 0  30 190 0  40 190 0  50 190 0  60 190 0  70 190 0  80 190 0  90 190 0  100 190 0  110 190 0  120 190 0  130 190 0  140 190 0  150 190 0  160 190 0  170 190 0  180 190 0  190 190 0  200 190 0  210 190 0  220 190 0  230 190 0  240 190 0  250 190 0  260 190 0  270 190 0  280 190 0  290 190 0  300 190 0  310 190 0  320 190 0  330 190 0  340 190 0  350 190 0  360 190 0  370 190 0  380 190 0  390 190 0  400 190 0  0 200 0  10 200 0  20 200 0  30 200 0  40 200 0  50 200 0  60 200 0  70 200 0  80 200 0  90 200 0  100 200 0  110 200 0  120 200 0  130 200 0  140 200 0  150 200 0  160 200 0  170 200 0  180 200 0  190 200 0  200 200 0  210 200 0  220 200 0  230 200 0  240 200 0  250 200 0  260 200 0  270 200 0  280 200 0  290 200 0  300 200 0  310 200 0  320 200 0  330 200 0  340 200 0  350 200 0  360 200 0  370 200 0  380 200 0  390 200 0  400 200 0  0 0 10  10 0 10  20 0 10  30 0 10  40 0 10  50 0 10  60 0 10  70 0 10  80 0 10  90 0 10  100 0 10  110 0 10  120 0 10  130 0 10  140 0 10  150 0 10  160 0 10  170 0 10  180 0 10  190 0 10  200 0 10  210 0 10  220 0 10  230 0 10  240 0 10  250 0 10  260 0 10  270 0 10  280 0 10  290 0 10  300 0 10  310 0 10  320 0 10  330 0 10  340 0 10  350 0 10  360 0 10  370 0 10  380 0 10  390 0 10  400 0 10  0 10 10  10 10 10  20 10 10  30 10 10  40 10 10  50 10 10  60 10 10  70 10 10  80 10 10  90 10 10  100 10 10  110 10 10  120 10 10  130 10 10  140 10 10  150 10 10  160 10 10  170 10 10  180 10 10  190 10 10  200 10 10  210 10 10  220 10 10  230 10 10  240 10 10  250 10 10  260 10 10  270 10 10  280 10 10  290 10 10  300 10 10  310 10 10  320 10 10  330 10 10  340 10 10  350 10 10  360 10 10  370 10 10  380 10 10  390 10 10  400 10 10  0 20 10  10 20 10  20 20 10  30 20 10  40 20 10  50 20 10  60 20 10  70 20 10  80 20 10  90 20 10  100 20 10  110 20 10  120 20 10  130 20 10  140 20 
[...]
<PointData  Scalars="f_136"> 
<DataArray  type="Float64"  Name="f_136"  format="ascii">1.4221400690293311e+00  1.4122030639270879e+00  1.3885904778728591e+00  1.3573524263418844e+00  1.3261498401833072e+00  1.2994780081538624e+00  1.2786296913428710e+00  1.2631665031530377e+00  1.2520514338692486e+00  1.2442129327749174e+00  1.2387505673410455e+00  1.2349732104244382e+00  1.2323748381453357e+00  1.2305948287050423e+00  1.2293804662279066e+00  1.2285567433191622e+00  1.2280037499243737e+00  1.2276404343762746e+00  1.2274132976638295e+00  1.2272887882904517e+00  1.2272484748496160e+00  1.2272863744709401e+00  1.2274080814080190e+00  1.2276315776506188e+00  1.2279898342049778e+00  1.2285355478353588e+00  1.2293486210488520e+00  1.2305472889121898e+00  1.2323040981011668e+00  1.2348681384155746e+00  1.2385946862945520e+00  1.2439818977436059e+00  1.2517093583707666e+00  1.2626606646825176e+00  1.2778830002997967e+00  1.2983783912405389e+00  1.3245349163665336e+00  1.3549842654008890e+00  1.3850992781708598e+00  1.4069146948906943e+00  1.4134660361343450e+00  1.4122638294197247e+00  1.4031841004734951e+00  1.3774308750495166e+00  1.3431484268819587e+00  1.3099865477393173e+00  1.2825706666621270e+00  1.2616930973328344e+00  1.2464936192428906e+00  1.2357073480960621e+00  1.2281675146545878e+00  1.2229455191926153e+00  1.2193502371940048e+00  1.2168850925443477e+00  1.2152004624059400e+00  1.2140533266649911e+00  1.2132763459096740e+00  1.2127553315503663e+00  1.2124133301648421e+00  1.2121996594364262e+00  1.2120825842420397e+00  1.2120446891527994e+00  1.2120803249135235e+00  1.2121947769972361e+00  1.2124050401260051e+00  1.2127423059997606e+00  1.2132565059053326e+00  1.2140235174894876e+00  1.2151559614275669e+00  1.2168188740589256e+00  1.2192518826944365e+00  1.2227996113922766e+00  1.2279512864856854e+00  1.2353872763709308e+00  1.2460205784897413e+00  1.2609957057610468e+00  1.2815468419428311e+00  1.3084949841898352e+00  1.3410081579479629e+00  1.3744629122250485e+00  1.3994465243015664e+00  1.4092380300786833e+00  1.3888141060828942e+00  1.3775918710392567e+00  1.3459581114088208e+00  1.3042259621386878e+00  1.2666806511666162e+00  1.2377350474822579e+00  1.2168620007850519e+00  1.2022592461472281e+00  1.1921884971551804e+00  1.1852925399724505e+00  1.1805882658682529e+00  1.1773860547144603e+00  1.1752095288299342e+00  1.1737322930180649e+00  1.1727318532028992e+00  1.1720571920554930e+00  1.1716063710536728e+00  1.1713112584086343e+00  1.1711272621818676e+00  1.1710265884747824e+00  1.1709940317591787e+00  1.1710246696142621e+00  1.1711231157203688e+00  1.1713042185237190e+00  1.1715953106341437e+00  1.1720403464355595e+00  1.1727065445311731e+00  1.1736945128090972e+00  1.1751533150636944e+00  1.1773025702454021e+00  1.1804644446319423e+00  1.1851091165023362e+00  1.1919171823260089e+00  1.2018587978459965e+00  1.2162731016892034e+00  1.2368746952045018e+00  1.2654395993725851e+00  1.3024817885759161e+00  1.3436426014329268e+00  1.3749161285916778e+00  1.3868918260675360e+00  1.3578523085749497e+00  1.3435789881134315e+00  1.3044856290801634e+00  1.2532444451557219e+00  1.2107613204014767e+00  1.1803418786523436e+00  1.1596755532306018e+00  1.1458812571698118e+00  1.1367123013723608e+00  1.1306131423101264e+00  1.1265468260775913e+00  1.1238292536865098e+00  1.1220093847517163e+00  1.1207891207173131e+00  1.1199709155802038e+00  1.1194236550990380e+00  1.1190604039029359e+00  1.1188238794949883e+00  1.1186770065443650e+00  1.1185968685481995e+00  1.1185709999974240e+00  1.1185953809088545e+00  1.1186737921858196e+00  1.1188184227510127e+00  1.1190518316662870e+00  1.1194106000546644e+00  1.1199513023700809e+00  1.1207598422221619e+00  1.1219658194803219e+00  1.1237645528599962e+00  1.1264508689947403e+00  1.1304710216124201e+00  1.1365021639345183e+00  1.1455713230855051e+00  1.1592202675504999e+00  1.1796777318781775e+00  1.2098048194984805e+00  1.2519004762425978e+00  1.3026888339243630e+00  1.3414068102276326e+00  1.3555566110388815e+00  1.3270626175251965e+00  1.3108143679332769e+00  1.2673070899295751e+00  1.2110999876049009e+00  1.1656534665498610e+00  1.1342160605291465e+00  1.1136511598078438e+00  1.1004244038906583e+00  1.0919284095987449e+00  1.0864466346271222e+00  1.0828880946463884e+00  1.0805641487234430e+00  1.0790385142340968e+00  1.0780328492102527e+00  1.0773682998655174e+00  1.0769292788502685e+00  1.0766408711911089e+00  1.0764546506423929e+00  1.0763397599890123e+00  1.0762773553891078e+00  1.0762572733787259e+00  1.0762762554634182e+00  1.0763373833261374e+00  1.0764506157437486e+00  1.0766345317501245e+00  1.0769196219845962e+00  1.0773537868619791e+00  1.0780111741884459e+00  1.0790062439278389e+00  1.0805161895430797e+00  1.0828169098846421e+00  1.0863411043623257e+00  1.0917721909259201e+00  1.1001936227775198e+00  1.1133112962513450e+00  1.1337181335234163e+00  1.1649305613717653e+00  1.2100679599970061e+00  1.2658784651909709e+00  1.3089195239731179e+00  1.3244021493222913e+00  1.3009860708523004e+00  1.2839658465307668e+00  1.2388704037695983e+00  1.1811237148365417e+00  1.1346207900819187e+00  1.1027945460986524e+00  1.0823326730211873e+00  1.0694572617399558e+00  1.0613855214910868e+00  1.0563059283376584e+00  1.0530881195735766e+00  1.0510348804865537e+00  1.0497156737176732e+00  1.0488630052503580e+00  1.0483094277772358e+00  1.0479493909491293e+00  1.0477160472868250e+00  1.0475670723925321e+00  1.0474759742197672e+00  1.0474268057743308e+00  1.0474110553441160e+00  1.0474260143700087e+00  1.0474742637493364e+00  1.0475641671892670e+00  1.0477114797450102e+00  1.0479424269934832e+00  1.0482989498789783e+00  1.0488473344505767e+00  1.0496923026157354e+00  1.0510000754680711e+00  1.0530363308212218e+00  1.0562289179309872e+00  1.0612710804778831e+00  1.0692873361320725e+00  1.0820806698801857e+00  1.1024216141340071e+00  1.1340712061797422e+00  1.1803206504834320e+00  1.2377140267861038e+00  1.2823120719081313e+00  1.2983407113407988e+00  1.2809918959531497e+00  1.2638984985278217e+00  1.2187134407669566e+00  1.1610611400409672e+00  1.1145763814581293e+00  1.0828117569901881e+00  1.0625132955717147e+00  1.0498751490053160e+00  1.0420645254854801e+00  1.0372318247864281e+00  1.0342267793372144e+00  1.0323460575267953e+00  1.0311609458542970e+00  1.0304093346996419e+00  1.0299300934807907e+00  1.0296235826692013e+00  1.0294279067683794e+00  1.0293045997412720e+00  1.0292299899887940e+00  1.0291900312218611e+00  1.0291773068160817e+00  1.0291894759672966e+00  1.0292287890816179e+00  1.0293025576820221e+00  1.0294246911131271e+00  1.0296186697623113e+00  1.0299226827347174e+00  1.0303982171085007e+00  1.0311443046741522e+00  1.0323211674235404e+00  1.0341895525869518e+00  1.0371761258347230e+00  1.0419811331082593e+00  1.0497501822423834e+00  1.0623258353008604e+00  1.0825303237655830e+00  1.1141540130979144e+00  1.1604292769001965e+00  1.2177741454868871e+00  1.2624928608724910e+00  1.2786283622352803e+00  1.2667588728115762e+00  1.2498641356282585e+00  1.2051352218167655e+00  1.1481199502981796e+00  1.1020662025261565e+00  1.0705669765276371e+00  1.0504663699597860e+00  1.0380057524923134e+00  1.0303612531894006e+00  1.0256786392866863e+00  1.0228024172750130e+00  1.0210272288065938e+00  1.0199253309269209e+00  1.0192373470981637e+00  1.0188055302369177e+00  1.0185335585019712e+00  1.0183624205280963e+00  1.0182559625828067e+00  1.0181922403382082e+00  1.0181583901206550e+00  1.0181476843385955e+00  1.0181580162257748e+00  1.0181914304851938e+00  1.0182545821708526e+00  1.0183602396196201e+00  1.0185302126485725e+00  1.0188004579112193e+00  1.0192296923858475e+00  1.0199137935609428e+00  1.0210098333955888e+00  1.0227761573965866e+00  1.0256389262731280e+00  1.0303010582485617e+00  1.0379142671175769e+00  1.0503269203416223e+00  1.0703538359501541e+00  1.1017399520350315e+00  1.1476212816360909e+00  1.2043762626552446e+00  1.2486990661579878e+00  1.2647659760526022e+00  1.2574226520485243e+00  1.2407634070284597e+00  1.1965480280801819e+00  1.1401862946005017e+00  1.0946032539062776e+00  1.0633919965236540e+00  1.0434736817795758e+00  1.0311448158582521e+00  1.0236069404972248e+00  1.0190143940199337e+00  1.0162137921296559e+00  1.0145004886450524e+00  1.0134477589496222e+00  1.0127977639443129e+00  1.0123945654041759e+00  1.0121436415231568e+00  1.0119875842420369e+00  1.0118915547976175e+00  1.0118346096912478e+00  1.0118045805053861e+00  1.0117951493333073e+00  1.0118043508973389e+00  1.0118341107630948e+00  1.0118906999512240e+00  1.0119862242374837e+00  1.0121415370215816e+00  1.0123913422955289e+00  1.0127928423278107e+00  1.0134402409466972e+00  1.0144889811070441e+00  1.0161961255503671e+00  1.0189871750740542e+00  1.0235648374089157e+00  1.0310794169755770e+00  1.0433716856717592e+00  1.0632324046845629e+00  1.0943532196746597e+00  1.1397954214850829e+00  1.1959401373419958e+00  1.2398110763295769e+00  1.2557740567586448e+00  1.2521612823516672e+00  1.2356699293437345e+00  1.1918156856674316e+00  1.1359025196296273e+00  1.0906525651145480e+00  1.0596485684043107e+00  1.0398567711821907e+00  1.0276116079413822e+00  1.0201355516055770e+00  1.0155922167164597e+00  1.0128318059112729e+00  1.0111511256696597e+00  1.0101243561290221e+00  1.0094945345810264e+00  1.0091066421900747e+00  1.0088670563360835e+00  1.0087191763871237e+00  1.0086288348502128e+00  1.0085756059871769e+00  1.0085476853500015e+00  1.0085389721365459e+00  1.0085475785173839e+00  1.0085753715434054e+00  1.0086284268576811e+00  1.0087185139520356e+00  1.0088660060543886e+00  1.0091049885830952e+00  1.0094919312416193e+00  1.0101202453613325e+00  1.0111446062612961e+00  1.0128214152437081e+00  1.0155755714496857e+00  1.0201087559575399e+00  1.0275682844329213e+00  1.0397864923901090e+00  1.0595343801903037e+00  1.0904672357283698e+00  1.1356031395756563e+00  1.1913352852083952e+00  1.2348931449564275e+00  1.2507792810581948e+00  1.2504300770885959e+00  1.2340003309516896e+00  1.1902782205793876e+00  1.1345281056137622e+00  1.0894016713090187e+00  1.0584761352840566e+00  1.0387324169617056e+00  1.0265183458633704e+00  1.0190643687939716e+00  1.0145379887114294e+00  1.0117911062051577e+00  1.0101212801615416e+00  1.0091031142625801e+00  1.0084799821866761e+00  1.0080971803276437e+00  1.0078613814292994e+00  1.0077162468533087e+00  1.0076278269795145e+00  1.0075758652058378e+00  1.0075486774909619e+00  1.0075402369365722e+00  1.0075486856637292e+00  1.0075758785320428e+00  1.0076278376978094e+00  1.0077162383415350e+00  1.0078613201114264e+00  1.0080970005890959e+00  1.0084795588411435e+00  1.0091022129130915e+00  1.0101194685840043e+00  1.0117875976149460e+00  1.0145313672363403e+00  1.0190521138627211e+00  1.0264960190359327e+00  1.0386922949621045e+00  1.0584049627447856e+00  1.0892770637160321e+00  1.1343128567381275e+00  1.1899102618467408e+00  1.2333649926216801e+00  1.2492254851535118e+00  1.2520362886961640e+00  1.2355529791190001e+00  1.1917165720826812e+00  1.1358257934117102e+00  1.0905955451022917e+00  1.0596067346654772e+00  1.0398260564129207e+00  1.0275889128631728e+00  1.0201186558884203e+00  1.0155795596432906e+00  1.0128222865388963e+00  1.0111439548876007e+00  1.0101189563169919e+00  1.0094904742300457e+00  1.0091035936934760e+00  1.0088647682762515e+00  1.0087174546617650e+00  1.0086275292425937e+00  1.0085746002803262e+00  1.0085468900093308e+00  1.0085383191531112e+00  1.0085470183883296e+00  1.0085748726909602e+00  1.0086279781369951e+00  1.0087181313253490e+00  1.0088657450441225e+00  1.0091049647603225e+00  1.0094923517188739e+00  1.0101214549417781e+00  1.0111471523828028e+00  1.0128261359191215e+00  1.0155837097819960e+00  1.0201221031351111e+00  1.0275893492300796e+00  1.0398186840999075e+00  1.0595821542289345e+00  1.0905360236516732e+00  1.1356985021311456e+00  1.1914598517784454e+00  1.2350396063895677e+00  1.2509320475433909e+00  1.2571534015887389e+00  1.2405115464304290e+00  1.1963347257940598e+00  1.1400212646436010e+00  1.0944805782567344e+00  1.0633018633733364e+00  1.0434073369203156e+00  1.0310956378445546e+00  1.0235702110618969e+00  1.0189868030649876e+00  1.0161929998546233e+00  1.0144848087225717e+00  1.0134359478603943e+00  1.0127888857652494e+00  1.0123879051413205e+00  1.0121386480395616e+00  1.0119838308924991e+00  1.0118887108889174e+00  1.0118324190464678e+00  1.0118028452818604e+00  1.0117937183542858e+00  1.0118031125040825e+00  1.0118329908465837e+00  1.0118896665593355e+00  1.0119853010923614e+00  1.0121408294937566e+00  1.0123910808802028e+00  1.0127934503786111e+00  1.0134424351256976e+00  1.0144939142966349e+00  1.0162055822214824e+00  1.0190038275142519e+00  1.0235925666897066e+00  1.0311236924109177e+00  1.0434399702927026e+00  1.0633344711713026e+00  1.0945009856333521e+00  1.1400010846492856e+00  1.1962094935267773e+00  1.2401282623478991e+00  1.2561050489550394e+00  1.2663040818025630e+00  1.2494389652073128e+00  1.2047756419503024e+00  1.1478420221147558e+00  1.1018594682382286e+00  1.0704146598139213e+00  1.0503537427224985e+00  1.0379218179486058e+00  1.0302982403780776e+00  1.0256311059140695e+00  1.0227664957991707e+00  1.0210001019886394e+00  1.0199048944845353e+00  1.0192219981943138e+00  1.0187940329858920e+00  1.0185249544421942e+00  1.0183559652178422e+00  1.0182510780798157e+00  1.0181884783520745e+00  1.0181554033901445e+00  1.0181452053314954e+00  1.0181558432947369e+00  1.0181894225879662e+00  1.0182526644657561e+00  1.0183584238766272e+00  1.0185286386130186e+00  1.0187994645840444e+00  1.0192299315571922e+00  1.0199164014965789e+00  1.0210166795356155e+00  1.0227901899026763e+00  1.0256646312107947e+00  1.0303450392437050e+00  1.0379859300923120e+00  1.0504391961815918e+00  1.0705237270657531e+00  1.1019882214985419e+00  1.1479691992081769e+00  1.2048340730607912e+00  1.2492397080444664e+00  1.2653306574943031e+00  1.2802824766736092e+00  1.2632361632364251e+00  1.2181547537712134e+00  1.1606299553264823e+00  1.1142551639828346e+00  1.0825739568348329e+00  1.0623362185164216e+00  1.0497421696762379e+00  1.0419640114051572e+00  1.0371556186813256e+00  1.0341690164041635e+00  1.0323023890563927e+00  1.0311280627250934e+00  1.0303846770422878e+00  1.0299116661904262e+00  1.0296098289642939e+00  1.0294176142962870e+00  1.0292968267121798e+00  1.0292240055888109e+00  1.0291852678500859e+00  1.0291733233571412e+00  1.0291859324566870e+00  1.0292254343866944e+00  1.0292992336080218e+00  1.0294213589543821e+00  1.0296154690173824e+00  1.0299200366879029e+00  1.0303970062538939e+00  1.0311461360763154e+00  1.0323287747628960e+00  1.0342073651210584e+00  1.0372110401670456e+00  1.0420435023479593e+00  1.0498549912344706e+00  1.0624939304837790e+00  1.0827893170632650e+00  1.1145377465947244e+00  1.1609725512033311e+00  1.2184942457136307e+00  1.2633473121857965e+00  1.2795222650593556e+00  1.2999157215167665e+00  1.2829697277696688e+00  1.2380344155185703e+00  1.1804797773199220e+00  1.1341394908191897e+00  1.1024354054415375e+00  1.0820624943446753e+00  1.0692523323914580e+00  1.0612293865468672e+00  1.0561869375800399e+00  1.0529977050482053e+00  1.0509665149745626e+00  1.0496642702207186e+00  1.0488245605674433e+00  1.0482807902657583e+00  1.0479280904198807e+00  1.0477001587712207e+00  1.0475551023467151e+00  1.0474667649960379e+00  1.0474194569307282e+00  1.0474048614445861e+00  1.0474204198295414e+00  1.0474688367592013e+00  1.0475585972889763e+00  1.0477056076160756e+00  1.0479363210157919e+00  1.0482930524219596e+00  1.0488427121152439e+00  1.0496910484349853e+00  1.0510059256806175e+00  1.0530555696673385e+00  1.0562716415828179e+00  1.0613528592037009e+00  1.0694312250594482e+00  1.0823193232452764e+00  1.1027988225955454e+00  1.1346410504042037e+00  1.1811392446588354e+00  1.2388109365137414e+00  1.2836240594071653e+00  1.2997174988577165e+00  1.3254733398706817e+00  1.3093473563551150e+00  1.2660883933570899e+00  1.2101632510954681e+00  1.1649483942688517e+00  1.1336830957958930e+00  1.1132444221360556e+00  1.1001121021684441e+00  1.0916884582156956e+00  1.0862629526482979e+00  1.0827483676082570e+00  1.0804586340903264e+00  1.0789594087769612e+00  1.0779739128638826e+00  1.0773245847295125e+00  1.0768969022623982e+00  1.0766168142470802e+00  1.0764365794780304e+00  1.0763258710835049e+00  1.0762662459100216e+00  1.0762478367800781e+00  1.0762676026359623e+00  1.0763287911813846e+00  1.0764415085957879e+00  1.0766245067926932e+00  1.0769085393880817e+00  1.0773419586750526e+00  1.0779997055494601e+00  1.0789976057614388e+00  1.0805151326409006e+00  1.0828318598653306e+00  1.0863861893108611e+00  1.0918700145442075e+00  1.1003787431281042e+00  1.1136339952232093e+00  1.1342472541445066e+00  1.1657523891378505e+00  1.2112735805516037e+00  1.2675208124381001e+00  1.3109115827988895e+00  1.3265058538179861e+00  1.3555097901693740e+00  1.3414636247361460e+00  1.3027652026067831e+00  1.2519231798386883e+00  1.2097519055646313e+00  1.1795623330358644e+00  1.1590686470367224e+00  1.1454085414972970e+00  1.1363461880817125e+00  1.1303321221812781e+00  1.1263332718362418e+00  1.1236685326861968e+00  1.1218894558143782e+00  1.1207002424226191e+00  1.1199053481559142e+00  1.1193753450930009e+00  1.1190246716943850e+00  1.1187971300177304e+00  1.1186564755303110e+00  1.1185804089318634e+00  1.1185569084308875e+00  1.1185822628987907e+00  1.1186604659585331e+00  1.1188038666240554e+00  1.1190351880939307e+00  1.1193912630198564e+00  1.1199291356820720e+00  1.1207356076188240e+00  1.1219419385635190e+00  1.1237463876013765e+00  1.1264487774123919e+00  1.1305035071859972e+00  1.1366004312584739e+00  1.1457853479499520e+00  1.1596258344550801e+00  1.1803823459670306e+00  1.2109472000987047e+00  1.2536318429670439e+00  1.3051105071373987e+00  1.3444219078625468e+00  1.3587875120307564e+00  1.3853520367663401e+00  1.3746525258572868e+00  1.3436711743815490e+00  1.3024585961635642e+00  1.2652838913989406e+00  1.2366147763577000e+00  1.2159646227632150e+00  1.2015487877685489e+00  1.1916347416527924e+00  1.1848676214075622e+00  1.1802667302843293e+00  1.1771455900259202e+00  1.1750313809742485e+00  1.1736012368172268e+00  1.1726358544621274e+00  1.1719869223688295e+00  1.1715546909691645e+00  1.1712727343493170e+00  1.1710977460402532e+00  1.1710028669301209e+00  1.1709735414831537e+00  1.1710052710767580e+00  1.1711029200177574e+00  1.1712814677144563e+00  1.1715683230967793e+00  1.1720075569141974e+00  1.1726666978097546e+00  1.1736471167025113e+00  1.1750995316490107e+00  1.1772468348777310e+00  1.1804172584229455e+00  1.1850916497270321e+00  1.1919684854343584e+00  1.2020463251189026e+00  1.2167063702598873e+00  1.2377191464709181e+00  1.2669214723921001e+00  1.3048638334992417e+00  1.3471366987147213e+00  1.3794928288298982e+00  1.3919853549239101e+00  1.4070128095903371e+00  1.3994831708695048e+00  1.3747929772335106e+00  1.3410174705319293e+00  1.3081393785344282e+00  1.2809748295587138e+00  1.2603598928427346e+00  1.2454197268683322e+00  1.2348684256516691e+00  1.2275274863314769e+00  1.2224658443186562e+00  1.2189954665994469e+00  1.2166252269572619e+00  1.2150113742810131e+00  1.2139162331520570e+00  1.2131769270199808e+00  1.2126828002003074e+00  1.2123595893562311e+00  1.2121585904912142e+00  1.2120494659780201e+00  1.2120157296629794e+00  1.2120522829032603e+00  1.2121646522013394e+00  1.2123698197886406e+00  1.2126987671249723e+00  1.2132010939398949e+00  1.2139523575566271e+00  1.2150651195017446e+00  1.2167050918809483e+00  1.2191141932060283e+00  1.2226425476055331e+00  1.2277908799957511e+00  1.2352617127855798e+00  1.2460080217717051e+00  1.2612414910005212e+00  1.2822983557444552e+00  1.3101301607919738e+00  1.3440198131058880e+00  1.3793456857815676e+00  1.4064754972935984e+00  1.4179490942961206e+00  1.4135222567249042e+00  1.4092313784085788e+00  1.3867254236490778e+00  1.3551216192882709e+00  1.3235686927395309e+00  1.2969352833514995e+00  1.2764031149611323e+00  1.2613583363122318e+00  1.2506514457100615e+00  1.243161652650632